integrator  = md
dt          = 0.002
nsteps      = 250000
nstxout-compressed = 5000
nstenergy   = 1000
nstlog      = 1000
continuation = yes
constraint_algorithm = lincs
constraints = h-bonds
cutoff-scheme = Verlet
nstlist     = 20
rlist       = 1.0
coulombtype = PME
rcoulomb    = 1.0
vdwtype     = Cut-off
rvdw        = 1.0
tcoupl      = V-rescale
tc-grps     = System
tau_t       = 0.1
ref_t       = 300
pcoupl      = C-rescale
pcoupltype  = isotropic
tau_p       = 2.0
ref_p       = 1.0
compressibility = 4.5e-5
pbc         = xyz
gen_vel     = no
