integrator  = md
dt          = 0.002
nsteps      = 250000
nstxout-compressed = 5000
nstenergy   = 1000
nstlog      = 1000
continuation = no
constraint_algorithm = lincs
constraints = h-bonds
cutoff-scheme = Verlet
nstlist     = 20
rlist       = 1.0
coulombtype = PME
rcoulomb    = 1.0
vdwtype     = Cut-off
rvdw        = 1.0
tcoupl      = V-rescale
tc-grps     = System
tau_t       = 0.1
ref_t       = 300
pcoupl      = no
pbc         = xyz
gen_vel     = yes
gen_temp    = 300
gen_seed    = 20260842
